
#(C) 2016 by FIZ Karlsruhe - Leibniz Institute for Information Infrastructure.  All rights reserved.
data_430674-ICSD
_database_code_ICSD 430674
_audit_creation_date 2016-08-01
_chemical_name_systematic 'Trineodymium triantimony dizinc tetradecaoxide'
_chemical_formula_structural 'Nd3 Sb3 Zn2 O14'
_chemical_formula_sum 'Nd3 O14 Sb3 Zn2'
_exptl_crystal_density_diffrn 6.84
_cell_measurement_temperature 295.
_publ_section_title

;
RE3 Sb3 Zn2 O14 (RE = La, Pr, Nd, Sm, Eu, Gd): a new family of pyrochlore
derivatives with rare earth ions on a 2D Kagome lattice
;
loop_
_citation_id
_citation_journal_full
_citation_year
_citation_journal_volume
_citation_page_first
_citation_page_last
_citation_journal_id_ASTM
primary

;
Journal of Materials Chemistry C: Materials for Optical and Electronic Devices
; 2016 4 541 550 JMCCCX
loop_
_publ_author_name
'Sanders, M.B.'
'Krizan, J.W.'
'Cava, R.J.'
_cell_length_a 7.465171(3)
_cell_length_b 7.465171(3)
_cell_length_c 17.382595(11)
_cell_angle_alpha 90.
_cell_angle_beta 90.
_cell_angle_gamma 120.
_cell_volume 838.93
_cell_formula_units_Z 3
_symmetry_space_group_name_H-M 'R -3 m H'
_symmetry_Int_Tables_number 166
_refine_ls_R_factor_all 0.0566
loop_
_symmetry_equiv_pos_site_id
_symmetry_equiv_pos_as_xyz
1 'x-y, -y, -z'
2 '-x, -x+y, -z'
3 'y, x, -z'
4 'x-y, x, -z'
5 'y, -x+y, -z'
6 '-x, -y, -z'
7 '-x+y, y, z'
8 'x, x-y, z'
9 '-y, -x, z'
10 '-x+y, -x, z'
11 '-y, x-y, z'
12 'x, y, z'
13 'x-y+2/3, -y+1/3, -z+1/3'
14 '-x+2/3, -x+y+1/3, -z+1/3'
15 'y+2/3, x+1/3, -z+1/3'
16 'x-y+2/3, x+1/3, -z+1/3'
17 'y+2/3, -x+y+1/3, -z+1/3'
18 '-x+2/3, -y+1/3, -z+1/3'
19 '-x+y+2/3, y+1/3, z+1/3'
20 'x+2/3, x-y+1/3, z+1/3'
21 '-y+2/3, -x+1/3, z+1/3'
22 '-x+y+2/3, -x+1/3, z+1/3'
23 '-y+2/3, x-y+1/3, z+1/3'
24 'x+2/3, y+1/3, z+1/3'
25 'x-y+1/3, -y+2/3, -z+2/3'
26 '-x+1/3, -x+y+2/3, -z+2/3'
27 'y+1/3, x+2/3, -z+2/3'
28 'x-y+1/3, x+2/3, -z+2/3'
29 'y+1/3, -x+y+2/3, -z+2/3'
30 '-x+1/3, -y+2/3, -z+2/3'
31 '-x+y+1/3, y+2/3, z+2/3'
32 'x+1/3, x-y+2/3, z+2/3'
33 '-y+1/3, -x+2/3, z+2/3'
34 '-x+y+1/3, -x+2/3, z+2/3'
35 '-y+1/3, x-y+2/3, z+2/3'
36 'x+1/3, y+2/3, z+2/3'
loop_
_atom_type_symbol
_atom_type_oxidation_number
Zn2+ 2
Sb5+ 5
Nd3+ 3
O2- -2
loop_
_atom_site_label
_atom_site_type_symbol
_atom_site_symmetry_multiplicity
_atom_site_Wyckoff_symbol
_atom_site_fract_x
_atom_site_fract_y
_atom_site_fract_z
_atom_site_B_iso_or_equiv
_atom_site_occupancy
_atom_site_attached_hydrogens
Zn1 Zn2+ 3 a 0. 0. 0. 0.00413 1. 0
Zn2 Zn2+ 18 g 0.0425(2) 0. 0.5 0.00773 0.16667 0
Sb1 Sb5+ 9 d 0.5 0. 0.5 0.00629 1. 0
Nd1 Nd3+ 9 e 0.5 0. 0. 0.00384 1. 0
O1 O2- 6 c 0. 0. 0.3883(2) 0.00269 1. 0
O2 O2- 18 h 0.53586(18) 0.46424(18) 0.14654(14) 0.00579 1. 0
O3 O2- 18 h 0.14539(16) 0.85471(16) -0.05648(13) 0.00315 1. 0
#End of TTdata_430674-ICSD